Date,Open,High,Low,Close,Volume,Adj Close
2016-11-25,1.43,1.45,1.41,1.44,2200,1.44
2016-11-23,1.37,1.45,1.34,1.42,87200,1.42
2016-11-22,1.40,1.43,1.37,1.39,34600,1.39
2016-11-21,1.47,1.48,1.36,1.41,162800,1.41
2016-11-18,1.41,1.45,1.41,1.43,33200,1.43
2016-11-17,1.38,1.44,1.38,1.40,23900,1.40
2016-11-16,1.38,1.38,1.36,1.37,24700,1.37
2016-11-15,1.45,1.45,1.30,1.38,78400,1.38
2016-11-14,1.50,1.50,1.41,1.43,224100,1.43
2016-11-11,1.29,1.36,1.29,1.35,162000,1.35
2016-11-10,1.29,1.30,1.22,1.30,47300,1.30
2016-11-09,1.27,1.32,1.27,1.30,32200,1.30
2016-11-08,1.31,1.31,1.22,1.25,59000,1.25
2016-11-07,1.31,1.38,1.29,1.30,28700,1.30
2016-11-04,1.30,1.32,1.27,1.29,10500,1.29
2016-11-03,1.33,1.38,1.30,1.31,15900,1.31
2016-11-02,1.25,1.33,1.25,1.32,3500,1.32
2016-11-01,1.23,1.28,1.21,1.24,60200,1.24
2016-10-31,1.30,1.30,1.18,1.24,49100,1.24
2016-10-28,1.36,1.38,1.31,1.31,28200,1.31
2016-10-27,1.37,1.37,1.36,1.37,7200,1.37
2016-10-26,1.38,1.40,1.38,1.39,7000,1.39
2016-10-25,1.44,1.47,1.36,1.37,15700,1.37
2016-10-24,1.42,1.45,1.40,1.45,10300,1.45
2016-10-21,1.45,1.49,1.39,1.39,12500,1.39
2016-10-20,1.45,1.50,1.45,1.45,2900,1.45
2016-10-19,1.46,1.47,1.44,1.46,2500,1.46
2016-10-18,1.41,1.46,1.41,1.44,26700,1.44
2016-10-17,1.40,1.43,1.40,1.41,13400,1.41
2016-10-14,1.46,1.46,1.40,1.43,30700,1.43
2016-10-13,1.50,1.50,1.42,1.47,10700,1.47
2016-10-12,1.50,1.50,1.42,1.50,22300,1.50
2016-10-11,1.50,1.52,1.47,1.50,17100,1.50
2016-10-10,1.54,1.57,1.50,1.51,31300,1.51
2016-10-07,1.52,1.56,1.52,1.53,9200,1.53
2016-10-06,1.56,1.58,1.52,1.52,38200,1.52
2016-10-05,1.53,1.59,1.53,1.55,34200,1.55
2016-10-04,1.53,1.65,1.52,1.52,233000,1.52
2016-10-03,1.49,1.55,1.48,1.53,43000,1.53
2016-09-30,1.51,1.52,1.46,1.47,50400,1.47
2016-09-29,1.47,1.51,1.47,1.50,4900,1.50
2016-09-28,1.45,1.54,1.44,1.46,93800,1.46
2016-09-27,1.51,1.51,1.42,1.44,72700,1.44
2016-09-26,1.50,1.51,1.49,1.51,5200,1.51
2016-09-23,1.53,1.55,1.49,1.49,23700,1.49
2016-09-22,1.49,1.54,1.49,1.52,18700,1.52
2016-09-21,1.48,1.53,1.48,1.49,38200,1.49
2016-09-20,1.49,1.55,1.48,1.49,41400,1.49
2016-09-19,1.51,1.51,1.47,1.49,27600,1.49
2016-09-16,1.47,1.50,1.47,1.47,5900,1.47
2016-09-15,1.47,1.51,1.47,1.49,8500,1.49
2016-09-14,1.54,1.57,1.47,1.47,50000,1.47
2016-09-13,1.53,1.55,1.53,1.53,10000,1.53
2016-09-12,1.54,1.56,1.53,1.54,27900,1.54
2016-09-09,1.57,1.58,1.54,1.54,2900,1.54
2016-09-08,1.56,1.58,1.56,1.56,7400,1.56
2016-09-07,1.56,1.57,1.53,1.57,19400,1.57
2016-09-06,1.53,1.58,1.52,1.56,31700,1.56
2016-09-02,1.58,1.58,1.54,1.57,19100,1.57
2016-09-01,1.55,1.59,1.52,1.53,14000,1.53
2016-08-31,1.53,1.58,1.52,1.57,35000,1.57
2016-08-30,1.57,1.60,1.53,1.54,58400,1.54
2016-08-29,1.55,1.60,1.55,1.60,30600,1.60
2016-08-26,1.53,1.55,1.53,1.55,20600,1.55
2016-08-25,1.52,1.55,1.51,1.53,27500,1.53
2016-08-24,1.49,1.54,1.49,1.53,8800,1.53
2016-08-23,1.57,1.57,1.51,1.52,27300,1.52
2016-08-22,1.54,1.54,1.51,1.53,34600,1.53
2016-08-19,1.60,1.60,1.53,1.54,19700,1.54
2016-08-18,1.56,1.63,1.45,1.62,238500,1.62
2016-08-17,1.66,1.69,1.66,1.68,86200,1.68
2016-08-16,1.65,1.65,1.64,1.65,26700,1.65
2016-08-15,1.65,1.65,1.64,1.64,33200,1.64
2016-08-12,1.61,1.65,1.61,1.63,18500,1.63
2016-08-11,1.63,1.65,1.61,1.65,24200,1.65
2016-08-10,1.63,1.65,1.62,1.63,56800,1.63
2016-08-09,1.63,1.63,1.61,1.62,25600,1.62
2016-08-08,1.65,1.65,1.62,1.63,33200,1.63
2016-08-05,1.57,1.62,1.57,1.60,43900,1.60
2016-08-04,1.56,1.57,1.53,1.55,11700,1.55
2016-08-03,1.57,1.57,1.53,1.56,18100,1.56
2016-08-02,1.56,1.57,1.52,1.57,25700,1.57
2016-08-01,1.57,1.57,1.52,1.54,19200,1.54
2016-07-29,1.59,1.61,1.56,1.56,27100,1.56
2016-07-28,1.56,1.62,1.56,1.60,25400,1.60
2016-07-27,1.55,1.64,1.55,1.57,36300,1.57
2016-07-26,1.65,1.66,1.53,1.56,84700,1.56
2016-07-25,1.70,1.75,1.60,1.60,154100,1.60
2016-07-22,1.54,1.75,1.54,1.66,225700,1.66
2016-07-21,1.57,1.57,1.49,1.52,110600,1.52
2016-07-20,1.56,1.59,1.51,1.58,36000,1.58
2016-07-19,1.53,1.55,1.50,1.54,44600,1.54
2016-07-18,1.53,1.55,1.53,1.54,3100,1.54
2016-07-15,1.52,1.56,1.52,1.54,23400,1.54
2016-07-14,1.54,1.60,1.46,1.55,233900,1.55
2016-07-13,1.58,1.58,1.53,1.54,7800,1.54
2016-07-12,1.54,1.60,1.53,1.59,3900,1.59
2016-07-11,1.56,1.62,1.53,1.53,26100,1.53
2016-07-08,1.56,1.60,1.53,1.58,18400,1.58
2016-07-07,1.62,1.62,1.52,1.53,42200,1.53
2016-07-06,1.62,1.62,1.53,1.62,16700,1.62
2016-07-05,1.58,1.62,1.58,1.62,8700,1.62
2016-07-01,1.53,1.61,1.53,1.61,27800,1.61
2016-06-30,1.51,1.57,1.50,1.52,41400,1.52
2016-06-29,1.54,1.54,1.49,1.51,7300,1.51
2016-06-28,1.48,1.54,1.48,1.52,27200,1.52
2016-06-27,1.57,1.57,1.49,1.50,18900,1.50
2016-06-24,1.54,1.60,1.54,1.54,3100,1.54
2016-06-23,1.59,1.64,1.54,1.54,38200,1.54
2016-06-22,1.62,1.64,1.56,1.59,15500,1.59
2016-06-21,1.53,1.63,1.53,1.58,6700,1.58
2016-06-20,1.51,1.55,1.51,1.54,4800,1.54
2016-06-17,1.50,1.57,1.50,1.51,10300,1.51
2016-06-16,1.51,1.56,1.48,1.50,49000,1.50
2016-06-15,1.54,1.62,1.54,1.55,3700,1.55
2016-06-14,1.57,1.63,1.52,1.55,8700,1.55
2016-06-13,1.53,1.58,1.51,1.56,4200,1.56
2016-06-10,1.61,1.61,1.53,1.53,18400,1.53
2016-06-09,1.65,1.65,1.60,1.63,27800,1.63
2016-06-08,1.73,1.73,1.63,1.64,52900,1.64
2016-06-07,1.60,1.77,1.60,1.70,112900,1.70
2016-06-06,1.60,1.63,1.59,1.59,13100,1.59
2016-06-03,1.64,1.65,1.62,1.62,12900,1.62
2016-06-02,1.65,1.66,1.60,1.64,98100,1.64
2016-06-01,1.64,1.66,1.60,1.65,87900,1.65
2016-05-31,1.68,1.68,1.58,1.65,132500,1.65
2016-05-27,1.60,1.68,1.46,1.68,250200,1.68
2016-05-26,1.63,1.65,1.61,1.63,80700,1.63
2016-05-25,1.59,1.65,1.59,1.65,41500,1.65
2016-05-24,1.60,1.64,1.57,1.60,181500,1.60
2016-05-23,1.57,1.59,1.50,1.59,149400,1.59
2016-05-20,1.46,1.58,1.45,1.58,32700,1.58
2016-05-19,1.48,1.50,1.46,1.48,28900,1.48
2016-05-18,1.50,1.50,1.49,1.49,7900,1.49
2016-05-17,1.48,1.50,1.46,1.50,24800,1.50
2016-05-16,1.49,1.50,1.48,1.49,11800,1.49
2016-05-13,1.45,1.50,1.45,1.48,21900,1.48
2016-05-12,1.50,1.50,1.45,1.46,23300,1.46
2016-05-11,1.51,1.54,1.49,1.50,5300,1.50
2016-05-10,1.46,1.52,1.46,1.49,14300,1.49
2016-05-09,1.53,1.53,1.45,1.45,47200,1.45
2016-05-06,1.52,1.59,1.52,1.56,63600,1.56
2016-05-05,1.55,1.59,1.52,1.55,39600,1.55
2016-05-04,1.45,1.59,1.45,1.59,93300,1.59
2016-05-03,1.44,1.50,1.42,1.42,103800,1.42
2016-05-02,1.45,1.47,1.44,1.44,30600,1.44
2016-04-29,1.42,1.47,1.42,1.44,10500,1.44
2016-04-28,1.46,1.54,1.45,1.51,97500,1.51
2016-04-27,1.47,1.49,1.45,1.46,18900,1.46
2016-04-26,1.54,1.54,1.50,1.50,17500,1.50
2016-04-25,1.51,1.55,1.46,1.54,12200,1.54
2016-04-22,1.47,1.55,1.47,1.51,39000,1.51
2016-04-21,1.52,1.52,1.46,1.46,12600,1.46
2016-04-20,1.53,1.55,1.50,1.50,41300,1.50
2016-04-19,1.55,1.55,1.52,1.52,18600,1.52
2016-04-18,1.57,1.57,1.53,1.55,88100,1.55
2016-04-15,1.60,1.61,1.56,1.58,26700,1.58
2016-04-14,1.65,1.65,1.58,1.58,42000,1.58
2016-04-13,1.60,1.73,1.55,1.67,271800,1.67
2016-04-12,1.58,1.66,1.51,1.62,58100,1.62
2016-04-11,1.66,1.70,1.61,1.61,43100,1.61
2016-04-08,1.54,1.70,1.50,1.61,176100,1.61
2016-04-07,1.52,1.56,1.49,1.50,7900,1.50
2016-04-06,1.45,1.55,1.41,1.54,64900,1.54
2016-04-05,1.40,1.55,1.40,1.49,58600,1.49
2016-04-04,1.37,1.50,1.37,1.48,57200,1.48
2016-04-01,1.41,1.44,1.33,1.42,46900,1.42
2016-03-31,1.45,1.45,1.38,1.40,26400,1.40
2016-03-30,1.45,1.50,1.41,1.41,21700,1.41
2016-03-29,1.49,1.49,1.38,1.39,43000,1.39
2016-03-28,1.47,1.49,1.45,1.45,5000,1.45
2016-03-24,1.38,1.49,1.38,1.45,25700,1.45
2016-03-23,1.46,1.46,1.32,1.39,96600,1.39
2016-03-22,1.50,1.50,1.40,1.46,50600,1.46
2016-03-21,1.56,1.64,1.50,1.53,141300,1.53
2016-03-18,1.70,1.70,1.57,1.57,65200,1.57
2016-03-17,1.65,1.67,1.63,1.67,14000,1.67
2016-03-16,1.65,1.69,1.61,1.63,16300,1.63
2016-03-15,1.70,1.74,1.62,1.64,79200,1.64
2016-03-14,1.71,1.75,1.58,1.62,126000,1.62
2016-03-11,1.73,1.73,1.70,1.71,20100,1.71
2016-03-10,1.66,1.75,1.65,1.70,20900,1.70
2016-03-09,1.79,1.79,1.75,1.75,9700,1.75
2016-03-08,1.72,1.77,1.72,1.76,22600,1.76
2016-03-07,1.70,1.77,1.70,1.75,29000,1.75
2016-03-04,1.68,1.72,1.65,1.67,38200,1.67
2016-03-03,1.68,1.74,1.67,1.71,23800,1.71
2016-03-02,1.73,1.75,1.65,1.66,57900,1.66
2016-03-01,1.70,1.73,1.69,1.72,26800,1.72
2016-02-29,1.67,1.70,1.67,1.68,11600,1.68
2016-02-26,1.73,1.73,1.63,1.69,21400,1.69
2016-02-25,1.70,1.75,1.63,1.64,54400,1.64
2016-02-24,1.76,1.76,1.66,1.69,31300,1.69
2016-02-23,1.82,1.85,1.72,1.74,52000,1.74
2016-02-22,1.90,1.90,1.73,1.82,56700,1.82
2016-02-19,1.76,1.79,1.72,1.77,30800,1.77
2016-02-18,1.77,1.79,1.72,1.72,55000,1.72
2016-02-17,1.65,1.77,1.64,1.74,65300,1.74
2016-02-16,1.57,1.65,1.57,1.63,15300,1.63
2016-02-12,1.57,1.61,1.53,1.55,17300,1.55
2016-02-11,1.53,1.63,1.52,1.55,24200,1.55
2016-02-10,1.56,1.63,1.55,1.57,9700,1.57
2016-02-09,1.53,1.57,1.52,1.52,15300,1.52
2016-02-08,1.51,1.59,1.51,1.54,28700,1.54
2016-02-05,1.59,1.64,1.56,1.56,25300,1.56
2016-02-04,1.63,1.65,1.59,1.59,19600,1.59
2016-02-03,1.65,1.69,1.62,1.65,22100,1.65
2016-02-02,1.65,1.69,1.62,1.66,70600,1.66
2016-02-01,1.67,1.70,1.65,1.66,64400,1.66
2016-01-29,1.58,1.63,1.51,1.63,60200,1.63
2016-01-28,1.70,1.72,1.59,1.60,37900,1.60
2016-01-27,1.81,1.85,1.63,1.65,77600,1.65
2016-01-26,1.71,1.83,1.69,1.78,223000,1.78
2016-01-25,1.67,1.73,1.66,1.71,47500,1.71
2016-01-22,1.63,1.70,1.63,1.66,126700,1.66
2016-01-21,1.45,1.59,1.41,1.50,82000,1.50
2016-01-20,1.42,1.52,1.35,1.48,157300,1.48
2016-01-19,1.50,1.50,1.39,1.39,27000,1.39
2016-01-15,1.50,1.50,1.43,1.47,11100,1.47
2016-01-14,1.40,1.50,1.35,1.50,41300,1.50
2016-01-13,1.42,1.50,1.40,1.43,70300,1.43
2016-01-12,1.44,1.59,1.40,1.48,80100,1.48
2016-01-11,1.69,1.69,1.35,1.37,112500,1.37
2016-01-08,1.75,1.75,1.58,1.64,127700,1.64
2016-01-07,1.52,1.84,1.52,1.67,520500,1.67
2016-01-06,1.52,1.60,1.51,1.58,195900,1.58
2016-01-05,1.45,1.54,1.45,1.52,43100,1.52
2016-01-04,1.45,1.49,1.36,1.47,93700,1.47
2015-12-31,1.40,1.50,1.40,1.46,73700,1.46
2015-12-30,1.40,1.48,1.37,1.44,67500,1.44
2015-12-29,1.36,1.55,1.31,1.42,328500,1.42
2015-12-28,1.31,1.34,1.25,1.34,25400,1.34
2015-12-24,1.29,1.31,1.27,1.31,11200,1.31
2015-12-23,1.30,1.30,1.26,1.30,26400,1.30
2015-12-22,1.28,1.34,1.28,1.33,14000,1.33
2015-12-21,1.34,1.37,1.24,1.32,30400,1.32
2015-12-18,1.37,1.38,1.27,1.29,48900,1.29
2015-12-17,1.32,1.40,1.29,1.35,37700,1.35
2015-12-16,1.32,1.32,1.28,1.29,19400,1.29
2015-12-15,1.30,1.30,1.23,1.28,35900,1.28
2015-12-14,1.31,1.33,1.30,1.32,12700,1.32
2015-12-11,1.32,1.39,1.32,1.32,11200,1.32
2015-12-10,1.36,1.36,1.33,1.36,18600,1.36
2015-12-09,1.36,1.40,1.32,1.32,59800,1.32
2015-12-08,1.27,1.35,1.23,1.34,46600,1.34
2015-12-07,1.28,1.30,1.22,1.23,21900,1.23
2015-12-04,1.33,1.37,1.27,1.28,16300,1.28
2015-12-03,1.38,1.39,1.34,1.34,18400,1.34
2015-12-02,1.31,1.36,1.27,1.35,38000,1.35
2015-12-01,1.18,1.39,1.17,1.30,105200,1.30
2015-11-30,1.18,1.20,1.16,1.18,13100,1.18
2015-11-27,1.16,1.20,1.16,1.20,5200,1.20
2015-11-25,1.20,1.21,1.15,1.21,21500,1.21
2015-11-24,1.23,1.23,1.15,1.19,28600,1.19
2015-11-23,1.20,1.20,1.12,1.15,30600,1.15
2015-11-20,1.14,1.18,1.12,1.13,16900,1.13
2015-11-19,1.15,1.15,1.12,1.15,8400,1.15
2015-11-18,1.15,1.15,1.11,1.12,53100,1.12
2015-11-17,1.27,1.29,1.09,1.13,152100,1.13
2015-11-16,1.38,1.40,1.27,1.29,41700,1.29
2015-11-13,1.26,1.49,1.26,1.36,242500,1.36
2015-11-12,1.16,1.28,1.15,1.20,142300,1.20
2015-11-11,1.13,1.14,1.12,1.13,65800,1.13
2015-11-10,1.14,1.15,1.13,1.13,5500,1.13
2015-11-09,1.13,1.17,1.13,1.13,32800,1.13
2015-11-06,1.16,1.16,1.11,1.13,9200,1.13
2015-11-05,1.15,1.17,1.11,1.11,8300,1.11
2015-11-04,1.12,1.14,1.10,1.12,30600,1.12
2015-11-03,1.18,1.18,1.13,1.17,18900,1.17
2015-11-02,1.18,1.18,1.15,1.17,3100,1.17
2015-10-30,1.10,1.18,1.10,1.18,17600,1.18
2015-10-29,1.16,1.16,1.08,1.09,13600,1.09
2015-10-28,1.11,1.20,1.07,1.15,57900,1.15
2015-10-27,1.06,1.15,1.06,1.15,15100,1.15
2015-10-26,1.07,1.10,1.06,1.07,25600,1.07
2015-10-23,1.08,1.12,1.06,1.10,10400,1.10
2015-10-22,1.06,1.11,1.06,1.09,29200,1.09
2015-10-21,1.08,1.09,1.05,1.05,11800,1.05
2015-10-20,1.05,1.09,1.05,1.05,30400,1.05
2015-10-19,1.06,1.08,1.06,1.07,22300,1.07
2015-10-16,1.12,1.12,1.07,1.08,5100,1.08
2015-10-15,1.12,1.12,1.12,1.12,1600,1.12
2015-10-14,1.05,1.12,1.04,1.12,29100,1.12
2015-10-13,0.91,1.11,0.86,1.09,24700,1.09
2015-10-12,1.08,1.10,1.02,1.10,40000,1.10
2015-10-09,1.08,1.10,1.07,1.09,31800,1.09
2015-10-08,1.05,1.06,1.02,1.05,16300,1.05
2015-10-07,1.04,1.09,1.04,1.06,19700,1.06
2015-10-06,1.04,1.08,1.04,1.06,9200,1.06
2015-10-05,1.01,1.05,1.01,1.04,26200,1.04
2015-10-02,1.00,1.04,0.99,1.04,13300,1.04
2015-10-01,1.00,1.06,1.00,1.04,15100,1.04
2015-09-30,1.00,1.00,0.96,0.98,21900,0.98
2015-09-29,1.00,1.03,0.97,1.00,21700,1.00
2015-09-28,1.01,1.03,1.00,1.00,19100,1.00
2015-09-25,1.08,1.09,1.00,1.01,27200,1.01
2015-09-24,1.06,1.07,1.04,1.07,33000,1.07
2015-09-23,1.05,1.09,1.05,1.07,17000,1.07
2015-09-22,1.07,1.09,1.07,1.07,1600,1.07
2015-09-21,1.08,1.08,1.04,1.08,14300,1.08
2015-09-18,1.07,1.07,1.04,1.04,300,1.04
2015-09-17,1.02,1.08,1.02,1.07,1700,1.07
2015-09-16,1.09,1.10,1.05,1.05,10300,1.05
2015-09-15,1.04,1.11,1.04,1.07,7400,1.07
2015-09-14,1.06,1.10,1.04,1.04,3700,1.04
2015-09-11,1.06,1.08,1.05,1.06,8700,1.06
2015-09-10,1.10,1.10,1.07,1.07,12800,1.07
2015-09-09,1.06,1.11,1.05,1.07,3100,1.07
2015-09-08,1.10,1.10,1.05,1.06,3700,1.06
2015-09-04,1.10,1.14,1.05,1.06,5200,1.06
2015-09-03,1.12,1.15,1.07,1.10,11400,1.10
2015-09-02,1.08,1.15,1.05,1.12,33200,1.12
2015-09-01,1.01,1.08,1.01,1.06,6300,1.06
2015-08-31,1.11,1.16,1.03,1.03,31900,1.03
2015-08-28,1.12,1.14,1.08,1.09,12800,1.09
2015-08-27,1.07,1.13,1.07,1.10,26000,1.10
2015-08-26,1.06,1.09,1.00,1.00,20000,1.00
2015-08-25,0.97,1.03,0.97,1.00,43700,1.00
2015-08-24,1.02,1.03,0.91,1.01,72000,1.01
2015-08-21,1.20,1.20,1.07,1.07,46900,1.07
2015-08-20,1.22,1.23,1.17,1.20,11500,1.20
2015-08-19,1.19,1.23,1.15,1.21,51900,1.21
2015-08-18,1.21,1.21,1.15,1.15,12000,1.15
2015-08-17,1.16,1.22,1.14,1.18,46400,1.18
2015-08-14,1.19,1.20,1.13,1.14,22400,1.14
2015-08-13,1.09,1.20,1.08,1.13,65100,1.13
2015-08-12,1.20,1.24,1.05,1.11,236900,1.11
2015-08-11,1.08,1.14,1.08,1.10,30300,1.10
2015-08-10,1.01,1.10,1.01,1.09,9400,1.09
2015-08-07,1.06,1.07,1.02,1.02,14900,1.02
2015-08-06,1.01,1.08,1.01,1.05,52500,1.05
2015-08-05,1.08,1.08,1.01,1.02,18100,1.02
2015-08-04,1.02,1.08,1.02,1.08,25300,1.08
2015-08-03,1.03,1.07,1.02,1.02,15400,1.02
2015-07-31,1.02,1.04,1.02,1.03,2800,1.03
2015-07-30,1.01,1.05,1.00,1.05,33100,1.05
2015-07-29,1.02,1.08,1.01,1.01,9900,1.01
2015-07-28,1.05,1.05,1.01,1.02,24400,1.02
2015-07-27,1.02,1.03,1.01,1.01,25500,1.01
2015-07-24,1.02,1.17,1.01,1.04,139000,1.04
2015-07-23,1.07,1.07,1.02,1.02,5100,1.02
2015-07-22,1.03,1.08,1.01,1.01,3500,1.01
2015-07-21,1.05,1.08,1.00,1.00,27900,1.00
2015-07-20,1.11,1.11,1.04,1.06,28500,1.06
2015-07-17,1.02,1.09,1.02,1.09,14100,1.09
2015-07-16,1.04,1.07,1.03,1.04,20700,1.04
2015-07-15,1.01,1.06,1.01,1.05,21600,1.05
2015-07-14,1.07,1.08,1.04,1.07,9400,1.07
2015-07-13,1.09,1.10,1.06,1.09,16400,1.09
2015-07-10,1.12,1.12,1.08,1.09,18100,1.09
2015-07-09,1.00,1.09,1.00,1.07,64000,1.07
2015-07-08,1.00,1.05,0.96,0.99,91400,0.99
2015-07-07,1.12,1.12,1.02,1.07,159400,1.07
2015-07-06,1.23,1.23,1.13,1.14,79000,1.14
2015-07-02,1.20,1.23,1.20,1.22,7200,1.22
2015-07-01,1.21,1.23,1.20,1.20,29300,1.20
2015-06-30,1.20,1.22,1.20,1.21,38300,1.21
2015-06-29,1.26,1.27,1.20,1.20,44700,1.20
2015-06-26,1.29,1.31,1.25,1.25,40100,1.25
2015-06-25,1.30,1.34,1.30,1.32,15400,1.32
2015-06-24,1.27,1.34,1.26,1.32,48400,1.32
2015-06-23,1.26,1.30,1.26,1.30,13000,1.30
2015-06-22,1.26,1.34,1.26,1.28,25100,1.28
2015-06-19,1.28,1.34,1.25,1.27,35300,1.27
2015-06-18,1.27,1.34,1.26,1.29,14200,1.29
2015-06-17,1.29,1.32,1.27,1.30,41100,1.30
2015-06-16,1.34,1.34,1.22,1.26,45000,1.26
2015-06-15,1.35,1.36,1.31,1.31,42700,1.31
2015-06-12,1.36,1.39,1.34,1.35,44400,1.35
2015-06-11,1.32,1.38,1.32,1.38,87800,1.38
2015-06-10,1.30,1.38,1.25,1.31,129100,1.31
2015-06-09,1.24,1.35,1.24,1.33,192200,1.33
2015-06-08,1.20,1.25,1.19,1.24,72000,1.24
2015-06-05,1.23,1.23,1.17,1.21,25200,1.21
2015-06-04,1.15,1.25,1.15,1.23,38800,1.23
2015-06-03,1.16,1.25,1.15,1.21,41600,1.21
2015-06-02,1.17,1.21,1.14,1.17,59200,1.17
2015-06-01,1.24,1.24,1.17,1.17,20700,1.17
2015-05-29,1.16,1.21,1.16,1.20,21800,1.20
2015-05-28,1.24,1.24,1.16,1.20,45300,1.20
2015-05-27,1.21,1.22,1.16,1.20,43200,1.20
2015-05-26,1.20,1.24,1.15,1.16,77500,1.16
2015-05-22,1.27,1.30,1.20,1.21,148700,1.21
2015-05-21,1.36,1.39,1.31,1.31,113700,1.31
2015-05-20,1.37,1.39,1.34,1.35,12500,1.35
2015-05-19,1.35,1.36,1.33,1.34,13500,1.34
2015-05-18,1.36,1.37,1.33,1.33,14300,1.33
2015-05-15,1.32,1.35,1.29,1.35,42900,1.35
2015-05-14,1.38,1.39,1.30,1.32,35800,1.32
2015-05-13,1.34,1.39,1.30,1.35,47500,1.35
2015-05-12,1.35,1.40,1.29,1.35,72100,1.35
2015-05-11,1.38,1.41,1.37,1.39,27100,1.39
2015-05-08,1.39,1.40,1.38,1.38,28700,1.38
2015-05-07,1.38,1.40,1.38,1.38,28900,1.38
2015-05-06,1.40,1.42,1.38,1.39,126000,1.39
2015-05-05,1.45,1.45,1.40,1.40,56300,1.40
2015-05-04,1.39,1.45,1.39,1.45,39700,1.45
2015-05-01,1.45,1.45,1.36,1.36,46400,1.36
2015-04-30,1.40,1.43,1.40,1.40,45400,1.40
2015-04-29,1.45,1.45,1.38,1.39,108900,1.39
2015-04-28,1.36,1.49,1.36,1.48,151600,1.48
2015-04-27,1.35,1.44,1.30,1.38,216800,1.38
2015-04-24,1.30,1.35,1.29,1.35,129900,1.35
2015-04-23,1.26,1.30,1.24,1.30,71600,1.30
2015-04-22,1.20,1.32,1.20,1.23,184500,1.23
2015-04-21,1.24,1.24,1.20,1.22,31500,1.22
2015-04-20,1.21,1.23,1.20,1.23,46100,1.23
2015-04-17,1.20,1.21,1.17,1.18,28800,1.18
2015-04-16,1.21,1.23,1.16,1.19,67700,1.19
2015-04-15,1.20,1.21,1.14,1.20,74200,1.20
2015-04-14,1.19,1.23,1.18,1.19,31300,1.19
2015-04-13,1.25,1.25,1.19,1.19,60300,1.19
2015-04-10,1.27,1.27,1.20,1.22,50800,1.22
2015-04-09,1.19,1.34,1.15,1.27,152800,1.27
2015-04-08,1.14,1.29,1.12,1.22,377100,1.22
2015-04-07,1.12,1.16,1.10,1.12,20600,1.12
2015-04-06,1.13,1.18,1.03,1.11,83900,1.11
2015-04-02,1.15,1.17,1.10,1.10,22500,1.10
2015-04-01,1.15,1.18,1.12,1.14,49000,1.14
2015-03-31,1.14,1.15,1.10,1.13,7300,1.13
2015-03-30,1.15,1.16,1.10,1.14,23900,1.14
2015-03-27,1.14,1.14,1.10,1.10,19900,1.10
2015-03-26,1.14,1.16,1.10,1.16,38400,1.16
2015-03-25,1.04,1.14,1.00,1.12,166900,1.12
2015-03-24,1.16,1.19,0.99,1.00,363400,1.00
2015-03-23,1.10,1.18,1.10,1.12,43200,1.12
2015-03-20,1.15,1.17,1.09,1.09,67700,1.09
2015-03-19,1.14,1.16,1.12,1.15,21700,1.15
2015-03-18,1.15,1.16,1.15,1.16,16500,1.16
2015-03-17,1.12,1.17,1.12,1.14,22300,1.14
2015-03-16,1.14,1.16,1.13,1.13,28000,1.13
2015-03-13,1.21,1.21,1.14,1.15,13800,1.15
2015-03-12,1.12,1.17,1.12,1.15,30500,1.15
2015-03-11,1.13,1.20,1.13,1.16,32200,1.16
2015-03-10,1.16,1.22,1.13,1.13,57800,1.13
2015-03-09,1.16,1.19,1.14,1.17,36200,1.17
2015-03-06,1.20,1.26,1.11,1.23,310500,1.23
2015-03-05,1.45,1.57,1.40,1.55,149800,1.55
2015-03-04,1.42,1.48,1.31,1.46,96900,1.46
2015-03-03,1.48,1.48,1.36,1.42,89200,1.42
2015-03-02,1.28,1.51,1.26,1.42,530700,1.42
2015-02-27,1.19,1.27,1.17,1.26,54200,1.26
2015-02-26,1.22,1.22,1.17,1.20,11700,1.20
2015-02-25,1.18,1.24,1.15,1.18,61900,1.18
2015-02-24,1.21,1.25,1.17,1.17,35000,1.17
2015-02-23,1.24,1.25,1.21,1.21,26600,1.21
2015-02-20,1.24,1.24,1.18,1.22,33100,1.22
2015-02-19,1.20,1.22,1.20,1.20,8000,1.20
2015-02-18,1.26,1.26,1.20,1.21,28000,1.21
2015-02-17,1.24,1.27,1.24,1.25,35300,1.25
2015-02-13,1.17,1.22,1.17,1.22,44900,1.22
2015-02-12,1.15,1.19,1.15,1.18,36000,1.18
2015-02-11,1.10,1.15,1.10,1.15,22200,1.15
2015-02-10,1.16,1.20,1.14,1.15,24000,1.15
2015-02-09,1.10,1.20,1.10,1.16,65700,1.16
2015-02-06,1.17,1.18,1.14,1.15,63300,1.15
2015-02-05,1.23,1.23,1.15,1.17,38100,1.17
2015-02-04,1.25,1.27,1.23,1.23,14900,1.23
2015-02-03,1.17,1.29,1.17,1.23,25900,1.23
2015-02-02,1.14,1.18,1.12,1.16,61100,1.16
2015-01-30,1.18,1.18,1.14,1.14,32400,1.14
2015-01-29,1.16,1.20,1.07,1.18,83300,1.18
2015-01-28,1.18,1.20,1.15,1.15,18800,1.15
2015-01-27,1.20,1.23,1.20,1.21,8000,1.21
2015-01-26,1.19,1.23,1.18,1.23,11300,1.23
2015-01-23,1.17,1.19,1.15,1.18,30800,1.18
2015-01-22,1.18,1.22,1.17,1.17,30100,1.17
2015-01-21,1.20,1.22,1.17,1.17,18100,1.17
2015-01-20,1.23,1.23,1.18,1.20,27400,1.20
2015-01-16,1.16,1.22,1.15,1.21,35600,1.21
2015-01-15,1.15,1.24,1.10,1.10,67200,1.10
2015-01-14,1.20,1.26,1.10,1.17,111000,1.17
2015-01-13,1.20,1.27,1.19,1.20,50900,1.20
2015-01-12,1.20,1.24,1.18,1.19,20400,1.19
2015-01-09,1.28,1.28,1.20,1.23,20300,1.23
2015-01-08,1.26,1.33,1.22,1.26,47700,1.26
2015-01-07,1.30,1.31,1.20,1.27,69500,1.27
2015-01-06,1.25,1.34,1.25,1.27,31600,1.27
2015-01-05,1.21,1.34,1.16,1.24,113300,1.24
2015-01-02,1.31,1.31,1.20,1.21,126300,1.21
2014-12-31,1.35,1.36,1.27,1.28,80200,1.28
2014-12-30,1.33,1.41,1.25,1.35,155600,1.35
2014-12-29,1.38,1.41,1.32,1.38,157200,1.38
2014-12-26,1.38,1.41,1.37,1.37,30100,1.37
2014-12-24,1.36,1.38,1.36,1.38,41200,1.38
2014-12-23,1.40,1.40,1.36,1.36,42600,1.36
2014-12-22,1.41,1.41,1.36,1.40,47500,1.40
2014-12-19,1.45,1.48,1.38,1.38,119100,1.38
2014-12-18,1.45,1.47,1.41,1.41,17700,1.41
2014-12-17,1.41,1.47,1.36,1.41,46400,1.41
2014-12-16,1.39,1.50,1.39,1.41,58700,1.41
2014-12-15,1.44,1.47,1.40,1.43,48000,1.43
2014-12-12,1.46,1.54,1.42,1.46,72500,1.46
2014-12-11,1.42,1.50,1.42,1.45,17200,1.45
2014-12-10,1.42,1.55,1.41,1.41,71600,1.41
2014-12-09,1.48,1.57,1.41,1.43,36100,1.43
2014-12-08,1.53,1.53,1.45,1.47,41400,1.47
2014-12-05,1.45,1.56,1.40,1.52,56900,1.52
2014-12-04,1.52,1.56,1.45,1.45,68400,1.45
2014-12-03,1.60,1.64,1.50,1.54,92800,1.54
2014-12-02,1.63,1.64,1.54,1.60,86500,1.60
2014-12-01,1.70,1.77,1.60,1.63,181500,1.63
2014-11-28,1.43,1.62,1.40,1.62,196400,1.62
2014-11-26,1.42,1.42,1.40,1.40,14300,1.40
2014-11-25,1.44,1.44,1.42,1.42,18700,1.42
2014-11-24,1.46,1.46,1.40,1.42,36000,1.42
2014-11-21,1.42,1.46,1.37,1.40,77000,1.40
2014-11-20,1.44,1.49,1.41,1.41,56800,1.41
2014-11-19,1.48,1.52,1.41,1.43,39300,1.43
2014-11-18,1.46,1.51,1.42,1.43,69000,1.43
2014-11-17,1.55,1.55,1.45,1.47,42400,1.47
2014-11-14,1.50,1.55,1.48,1.51,41200,1.51
2014-11-13,1.53,1.53,1.48,1.48,46200,1.48
2014-11-12,1.57,1.57,1.50,1.50,34600,1.50
2014-11-11,1.49,1.54,1.48,1.54,42000,1.54
2014-11-10,1.54,1.59,1.47,1.50,93700,1.50
2014-11-07,1.51,1.60,1.42,1.48,303900,1.48
2014-11-06,1.78,1.88,1.70,1.86,115900,1.86
2014-11-05,1.75,1.75,1.68,1.70,55800,1.70
2014-11-04,1.82,1.82,1.75,1.76,38700,1.76
2014-11-03,1.73,1.82,1.73,1.82,36100,1.82
2014-10-31,1.66,1.78,1.66,1.75,13300,1.75
2014-10-30,1.72,1.77,1.68,1.73,17800,1.73
2014-10-29,1.73,1.80,1.72,1.74,21400,1.74
2014-10-28,1.71,1.74,1.70,1.73,23400,1.73
2014-10-27,1.71,1.74,1.66,1.70,25000,1.70
2014-10-24,1.72,1.74,1.72,1.74,7700,1.74
2014-10-23,1.68,1.80,1.67,1.75,93300,1.75
2014-10-22,1.78,1.78,1.65,1.67,82500,1.67
2014-10-21,1.67,1.81,1.67,1.76,94200,1.76
2014-10-20,1.59,1.73,1.59,1.63,65900,1.63
2014-10-17,1.46,1.64,1.46,1.57,58700,1.57
2014-10-16,1.40,1.44,1.36,1.43,66400,1.43
2014-10-15,1.47,1.47,1.43,1.46,40700,1.46
2014-10-14,1.55,1.55,1.45,1.47,42200,1.47
2014-10-13,1.50,1.55,1.47,1.53,31600,1.53
2014-10-10,1.54,1.54,1.45,1.50,115300,1.50
2014-10-09,1.61,1.62,1.55,1.55,16000,1.55
2014-10-08,1.66,1.67,1.61,1.61,28400,1.61
2014-10-07,1.69,1.69,1.65,1.66,24500,1.66
2014-10-06,1.64,1.68,1.60,1.66,36300,1.66
2014-10-03,1.69,1.69,1.65,1.67,26600,1.67
2014-10-02,1.75,1.76,1.54,1.60,138900,1.60
2014-10-01,1.78,1.79,1.75,1.76,60200,1.76
2014-09-30,1.77,1.83,1.76,1.78,31100,1.78
2014-09-29,1.82,1.88,1.81,1.82,73400,1.82
2014-09-26,1.83,1.85,1.83,1.85,26500,1.85
2014-09-25,1.83,1.88,1.82,1.84,61200,1.84
2014-09-24,1.80,1.89,1.79,1.83,59300,1.83
2014-09-23,1.92,1.92,1.80,1.82,164400,1.82
2014-09-22,1.96,2.00,1.86,1.96,147800,1.96
2014-09-19,1.95,1.98,1.95,1.96,103700,1.96
2014-09-18,2.03,2.03,1.95,1.95,85000,1.95
2014-09-17,2.03,2.04,2.01,2.02,40900,2.02
2014-09-16,2.04,2.07,2.04,2.04,41400,2.04
2014-09-15,2.05,2.07,2.04,2.06,31800,2.06
2014-09-12,2.13,2.13,2.02,2.05,92400,2.05
2014-09-11,2.11,2.11,2.05,2.08,49500,2.08
2014-09-10,2.16,2.20,2.08,2.11,34000,2.11
2014-09-09,2.10,2.22,2.10,2.17,32600,2.17
2014-09-08,2.08,2.16,2.06,2.11,97000,2.11
2014-09-05,2.23,2.25,2.11,2.14,128500,2.14
2014-09-04,2.29,2.29,2.22,2.27,58700,2.27
2014-09-03,2.34,2.35,2.24,2.24,117600,2.24
2014-09-02,2.32,2.34,2.32,2.34,80900,2.34
2014-08-29,2.31,2.35,2.29,2.33,65600,2.33
2014-08-28,2.33,2.33,2.30,2.30,63500,2.30
2014-08-27,2.25,2.34,2.25,2.33,117100,2.33
2014-08-26,2.28,2.35,2.23,2.24,228200,2.24
2014-08-25,2.41,2.51,2.22,2.31,342200,2.31
2014-08-22,2.48,2.64,2.25,2.50,847100,2.50
2014-08-21,2.87,2.97,2.80,2.80,421400,2.80
2014-08-20,3.12,3.14,2.86,2.89,310200,2.89
2014-08-19,2.99,3.22,2.99,3.10,504400,3.10
2014-08-18,2.94,3.03,2.94,2.96,124500,2.96
2014-08-15,2.96,3.04,2.90,2.94,64400,2.94
2014-08-14,2.95,3.09,2.86,2.95,88100,2.95
2014-08-13,3.05,3.12,2.91,2.91,241100,2.91
2014-08-12,2.92,3.05,2.91,3.00,280900,3.00
2014-08-11,2.85,2.94,2.82,2.92,323200,2.92
2014-08-08,2.70,2.85,2.69,2.81,125900,2.81
2014-08-07,2.70,2.73,2.67,2.72,33100,2.72
2014-08-06,2.69,2.73,2.67,2.73,21500,2.73
2014-08-05,2.73,2.79,2.67,2.72,40200,2.72
2014-08-04,2.66,2.75,2.64,2.75,48900,2.75
2014-08-01,2.69,2.73,2.64,2.67,52400,2.67
2014-07-31,2.75,2.75,2.61,2.67,98500,2.67
2014-07-30,2.83,2.84,2.75,2.79,59300,2.79
2014-07-29,2.80,2.84,2.74,2.83,80800,2.83
2014-07-28,2.80,2.81,2.73,2.75,24200,2.75
2014-07-25,2.75,2.81,2.72,2.76,23900,2.76
2014-07-24,2.82,2.83,2.75,2.78,35600,2.78
2014-07-23,2.80,2.85,2.78,2.81,131500,2.81
2014-07-22,2.72,2.78,2.71,2.78,125600,2.78
2014-07-21,2.71,2.71,2.63,2.66,21700,2.66
2014-07-18,2.61,2.72,2.60,2.69,44100,2.69
2014-07-17,2.61,2.68,2.61,2.61,25300,2.61
2014-07-16,2.68,2.73,2.61,2.65,37200,2.65
2014-07-15,2.73,2.73,2.67,2.67,16600,2.67
2014-07-14,2.66,2.73,2.66,2.73,65200,2.73
2014-07-11,2.58,2.69,2.58,2.65,38600,2.65
2014-07-10,2.61,2.64,2.57,2.58,106500,2.58
2014-07-09,2.64,2.68,2.61,2.67,105300,2.67
2014-07-08,2.78,2.81,2.64,2.68,159700,2.68
2014-07-07,2.96,2.96,2.76,2.81,57600,2.81
2014-07-03,2.88,2.99,2.88,2.93,66800,2.93
2014-07-02,2.91,3.08,2.84,2.90,604100,2.90
2014-07-01,2.78,2.94,2.75,2.87,477600,2.87
2014-06-30,2.70,2.77,2.69,2.75,67700,2.75
2014-06-27,2.66,2.67,2.63,2.67,23500,2.67
2014-06-26,2.63,2.67,2.63,2.66,7900,2.66
2014-06-25,2.62,2.68,2.62,2.66,22500,2.66
2014-06-24,2.74,2.76,2.62,2.64,55300,2.64
2014-06-23,2.69,2.76,2.68,2.69,24100,2.69
2014-06-20,2.84,2.85,2.68,2.69,53300,2.69
2014-06-19,2.82,2.84,2.72,2.84,35600,2.84
2014-06-18,2.82,2.85,2.77,2.82,186300,2.82
2014-06-17,2.68,2.82,2.67,2.77,124000,2.77
2014-06-16,2.64,2.69,2.59,2.68,29000,2.68
2014-06-13,2.63,2.64,2.60,2.61,37100,2.61
2014-06-12,2.66,2.68,2.62,2.62,50300,2.62
2014-06-11,2.53,2.74,2.53,2.63,131300,2.63
2014-06-10,2.55,2.62,2.55,2.57,27600,2.57
2014-06-09,2.57,2.67,2.55,2.55,81000,2.55
2014-06-06,2.59,2.65,2.59,2.60,69800,2.60
2014-06-05,2.62,2.65,2.55,2.60,101400,2.60
2014-06-04,2.62,2.63,2.55,2.59,101700,2.59
2014-06-03,2.67,2.72,2.63,2.63,60500,2.63
2014-06-02,2.65,2.80,2.65,2.66,71300,2.66
2014-05-30,2.81,2.81,2.65,2.67,199600,2.67
2014-05-29,2.83,2.85,2.76,2.76,105300,2.76
2014-05-28,2.89,2.89,2.74,2.79,147400,2.79
2014-05-27,2.80,2.98,2.80,2.83,163700,2.83
2014-05-23,3.28,3.30,2.75,2.83,798900,2.83
2014-05-22,3.20,3.20,3.11,3.18,250400,3.18
2014-05-21,2.96,3.16,2.96,3.13,305000,3.13
2014-05-20,2.90,3.01,2.86,2.94,176400,2.94
2014-05-19,2.66,2.91,2.66,2.87,144500,2.87
2014-05-16,2.63,2.77,2.63,2.72,78800,2.72
2014-05-15,2.80,2.86,2.64,2.64,156700,2.64
2014-05-14,2.74,2.87,2.66,2.81,131300,2.81
2014-05-13,2.54,2.70,2.54,2.67,128400,2.67
2014-05-12,2.50,2.58,2.50,2.54,67300,2.54
2014-05-09,2.46,2.50,2.46,2.46,49600,2.46
2014-05-08,2.48,2.58,2.46,2.47,83900,2.47
2014-05-07,2.61,2.64,2.46,2.46,100100,2.46
2014-05-06,2.58,2.85,2.58,2.64,124300,2.64
2014-05-05,2.57,2.59,2.55,2.56,84000,2.56
2014-05-02,2.66,2.69,2.55,2.58,90500,2.58
2014-05-01,2.62,2.72,2.60,2.63,53900,2.63
2014-04-30,2.58,2.68,2.51,2.60,41900,2.60
2014-04-29,2.56,2.80,2.50,2.60,128700,2.60
2014-04-28,2.65,2.73,2.50,2.51,151700,2.51
2014-04-25,2.76,2.76,2.61,2.65,116300,2.65
2014-04-24,2.96,2.96,2.72,2.80,89900,2.80
2014-04-23,2.93,2.93,2.87,2.89,27300,2.89
2014-04-22,2.93,2.93,2.85,2.92,64000,2.92
2014-04-21,2.90,2.90,2.83,2.86,32600,2.86
2014-04-17,2.74,2.87,2.70,2.87,70300,2.87
2014-04-16,2.69,2.84,2.67,2.81,74600,2.81
2014-04-15,2.72,2.73,2.60,2.68,113000,2.68
2014-04-14,2.71,2.76,2.60,2.67,83400,2.67
2014-04-11,2.82,2.83,2.65,2.69,108300,2.69
2014-04-10,2.99,2.99,2.82,2.85,59500,2.85
2014-04-09,2.83,2.95,2.75,2.93,191000,2.93
2014-04-08,2.68,2.89,2.65,2.83,145700,2.83
2014-04-07,2.92,3.00,2.62,2.68,434800,2.68
2014-04-04,3.31,3.41,2.95,2.97,354000,2.97
2014-04-03,3.36,3.54,3.20,3.20,290200,3.20
2014-04-02,3.39,3.43,3.14,3.37,193000,3.37
2014-04-01,3.29,3.49,3.29,3.39,248500,3.39
2014-03-31,3.17,3.43,3.11,3.31,320700,3.31
2014-03-28,3.11,3.20,3.11,3.16,126200,3.16
2014-03-27,3.04,3.13,2.95,3.10,142000,3.10
2014-03-26,3.27,3.28,3.01,3.04,250100,3.04
2014-03-25,3.36,3.50,3.12,3.25,302300,3.25
2014-03-24,3.60,3.64,3.28,3.35,314200,3.35
2014-03-21,3.13,3.57,3.10,3.57,867000,3.57
2014-03-20,3.11,3.17,3.07,3.12,66600,3.12
2014-03-19,3.16,3.33,3.02,3.17,240900,3.17
2014-03-18,3.04,3.25,3.00,3.20,240600,3.20
2014-03-17,2.82,3.15,2.81,3.09,393200,3.09
2014-03-14,2.96,3.00,2.81,2.83,208800,2.83
2014-03-13,3.09,3.18,2.93,2.96,431600,2.96
2014-03-12,2.92,3.05,2.92,2.97,232800,2.97
2014-03-11,3.24,3.48,2.90,2.92,725500,2.92
2014-03-10,3.46,3.50,3.21,3.32,285700,3.32
2014-03-07,3.60,3.69,3.35,3.37,879600,3.37
2014-03-06,4.31,4.31,3.51,3.65,4262800,3.65
2014-03-05,2.86,3.38,2.81,3.26,1791200,3.26
2014-03-04,2.79,2.89,2.74,2.87,401900,2.87
2014-03-03,2.75,2.75,2.60,2.73,164200,2.73
2014-02-28,2.65,2.86,2.62,2.72,384600,2.72
2014-02-27,2.54,2.65,2.50,2.63,171400,2.63
2014-02-26,2.54,2.58,2.46,2.52,139300,2.52
2014-02-25,2.57,2.66,2.47,2.51,250300,2.51
2014-02-24,2.59,2.67,2.57,2.57,166800,2.57
2014-02-21,2.59,2.60,2.53,2.55,188800,2.55
2014-02-20,2.55,2.62,2.49,2.61,182400,2.61
2014-02-19,2.37,2.58,2.30,2.49,395700,2.49
2014-02-18,2.37,2.43,2.34,2.37,226000,2.37
2014-02-14,2.27,2.48,2.27,2.37,304900,2.37
2014-02-13,2.12,2.32,2.12,2.26,313300,2.26
2014-02-12,2.19,2.19,2.04,2.12,207700,2.12
2014-02-11,2.16,2.25,2.10,2.13,201400,2.13
2014-02-10,2.13,2.25,2.13,2.16,169300,2.16
2014-02-07,2.13,2.21,2.11,2.15,46500,2.15
2014-02-06,2.08,2.19,2.08,2.14,90900,2.14
2014-02-05,2.09,2.17,2.07,2.07,88400,2.07
2014-02-04,2.03,2.29,2.02,2.16,185200,2.16
2014-02-03,2.31,2.31,2.04,2.09,287100,2.09